============================== echo of input deck ==============================
echo

memory 400 mb

geometry
        O     0.000000000000    0.000000000000   -0.065638538099
        H     0.000000000000   -0.757480611647    0.520865616174
        H     0.000000000000    0.757480611647    0.520865616174
end

basis spherical
* library cc-pvdz
end

scf
 rhf
 thresh 1.0e-8
 nopen 0
end

mp2
tight
end

task mp2 energy
================================================================================

 Output coordinates in angstroms (scale by  1.889725989 to convert to a.u.)

  No.       Tag          Charge          X              Y              Z
 ---- ---------------- ---------- -------------- -------------- --------------
    1 O                    8.0000     0.00000000     0.00000000    -0.11730083
    2 H                    1.0000     0.75748061     0.00000000     0.46920332
    3 H                    1.0000    -0.75748061     0.00000000     0.46920332

         Total SCF energy =    -76.026760737428

 Vector    2  Occ=2.000000D+00  E=-1.336318D+00  Symmetry=a1

 Vector    3  Occ=2.000000D+00  E=-6.988693D-01  Symmetry=b1

 Vector    4  Occ=2.000000D+00  E=-5.664605D-01  Symmetry=a1

 Vector    5  Occ=2.000000D+00  E=-4.930970D-01  Symmetry=b2

 Vector    6  Occ=0.000000D+00  E= 1.854404D-01  Symmetry=a1

 Vector    7  Occ=0.000000D+00  E= 2.561441D-01  Symmetry=b1

 Vector    8  Occ=0.000000D+00  E= 7.887329D-01  Symmetry=b1

 Vector    9  Occ=0.000000D+00  E= 8.536818D-01  Symmetry=a1

 Vector   10  Occ=0.000000D+00  E= 1.163570D+00  Symmetry=a1

 Vector   11  Occ=0.000000D+00  E= 1.200375D+00  Symmetry=b2

 Vector   12  Occ=0.000000D+00  E= 1.253359D+00  Symmetry=b1

 Vector   13  Occ=0.000000D+00  E= 1.444597D+00  Symmetry=a1

 Vector   14  Occ=0.000000D+00  E= 1.476108D+00  Symmetry=a2

 Vector   15  Occ=0.000000D+00  E= 1.674463D+00  Symmetry=b2

       Multipole analysis of the density wrt the origin
       ------------------------------------------------

     L   x y z        total         open         nuclear
     -   - - -        -----         ----         -------
     0   0 0 0     -0.000000      0.000000     10.000000

     1   1 0 0      0.000000      0.000000      0.000000
     1   0 1 0      0.000000      0.000000      0.000000
     1   0 0 1      0.809392      0.000000      0.000000

     2   2 0 0     -3.063581      0.000000      4.097988
     2   1 1 0     -0.000000      0.000000      0.000000
     2   1 0 1     -0.000000      0.000000      0.000000
     2   0 2 0     -5.230346      0.000000      0.000000
     2   0 1 1     -0.000000      0.000000      0.000000

          Total MP2 energy           -76.230777733733
 Total times  cpu:        1.3s     wall:        2.9s
