============================== echo of input deck ==============================
echo

geometry
N        0.08546       -0.00020       -0.05091
H       -0.25454       -0.62639        0.67895
H       -0.25454       -0.31918       -0.95813
end

basis spherical
* library cc-pVDZ
end

scf
 uhf
 nopen 1
 thresh 1.0e-8
 maxiter 80
end

task mp2 energy
================================================================================

 Output coordinates in angstroms (scale by  1.889725989 to convert to a.u.)

  No.       Tag          Charge          X              Y              Z
 ---- ---------------- ---------- -------------- -------------- --------------
    1 N                    7.0000     0.00000000     0.00000000     0.13086620
    2 H                    1.0000     0.83282785     0.00000000    -0.45803169
    3 H                    1.0000    -0.83282785     0.00000000    -0.45803169

         Total SCF energy =    -55.566057523877

 Vector    2  Occ=1.000000D+00  E=-1.153477D+00  Symmetry=a1

 Vector    3  Occ=1.000000D+00  E=-6.493061D-01  Symmetry=b1

 Vector    4  Occ=1.000000D+00  E=-5.023309D-01  Symmetry=b2

 Vector    5  Occ=1.000000D+00  E=-4.849670D-01  Symmetry=a1

 Vector    6  Occ=0.000000D+00  E= 1.838233D-01  Symmetry=a1

 Vector    7  Occ=0.000000D+00  E= 2.562395D-01  Symmetry=b1

 Vector    8  Occ=0.000000D+00  E= 7.491882D-01  Symmetry=b1

 Vector    9  Occ=0.000000D+00  E= 7.901604D-01  Symmetry=a1

 Vector   10  Occ=0.000000D+00  E= 9.186678D-01  Symmetry=b2

 Vector   11  Occ=0.000000D+00  E= 9.631520D-01  Symmetry=a1

 Vector   12  Occ=0.000000D+00  E= 1.056788D+00  Symmetry=b1

 Vector   13  Occ=0.000000D+00  E= 1.289817D+00  Symmetry=a1

 Vector   14  Occ=0.000000D+00  E= 1.368451D+00  Symmetry=a2

 Vector   15  Occ=0.000000D+00  E= 1.504911D+00  Symmetry=a1

 Vector    2  Occ=1.000000D+00  E=-1.031244D+00  Symmetry=a1

 Vector    3  Occ=1.000000D+00  E=-6.253399D-01  Symmetry=b1

 Vector    4  Occ=1.000000D+00  E=-4.417019D-01  Symmetry=a1

 Vector    5  Occ=0.000000D+00  E= 1.530444D-01  Symmetry=b2

 Vector    6  Occ=0.000000D+00  E= 1.969001D-01  Symmetry=a1

 Vector    7  Occ=0.000000D+00  E= 2.643473D-01  Symmetry=b1

 Vector    8  Occ=0.000000D+00  E= 7.489102D-01  Symmetry=b1

 Vector    9  Occ=0.000000D+00  E= 8.140582D-01  Symmetry=a1

 Vector   10  Occ=0.000000D+00  E= 9.855755D-01  Symmetry=a1

 Vector   11  Occ=0.000000D+00  E= 1.075543D+00  Symmetry=b1

 Vector   12  Occ=0.000000D+00  E= 1.094148D+00  Symmetry=b2

 Vector   13  Occ=0.000000D+00  E= 1.317562D+00  Symmetry=a1

 Vector   14  Occ=0.000000D+00  E= 1.413301D+00  Symmetry=a2

 Vector   15  Occ=0.000000D+00  E= 1.538043D+00  Symmetry=a1

       Multipole analysis of the density wrt the origin
       ------------------------------------------------

     L   x y z        total         alpha         beta         nuclear
     -   - - -        -----         -----         ----         -------
     0   0 0 0     -0.000000     -5.000000     -4.000000      9.000000

     1   1 0 0     -0.000000     -0.000000     -0.000000      0.000000
     1   0 1 0     -0.000000     -0.000000     -0.000000      0.000000
     1   0 0 1     -0.738837     -0.495149     -0.243687      0.000000

     2   2 0 0     -3.819652     -4.502389     -4.271060      4.953796
     2   1 1 0     -0.000000     -0.000000     -0.000000      0.000000
     2   1 0 1      0.000000      0.000000      0.000000      0.000000
     2   0 2 0     -5.025989     -3.303216     -1.722773      0.000000
     2   0 1 1      0.000000      0.000000      0.000000      0.000000

          Total MP2 energy           -55.711202243414
 Total times  cpu:        2.1s     wall:        4.8s
