============================== echo of input deck ==============================
echo

geometry
O     0.000000000000    0.000000000000   -0.065638538099
H     0.000000000000   -0.757480611647    0.520865616174
H     0.000000000000    0.757480611647    0.520865616174
end

basis spherical
* library sto-3g
end

dft
 xc b3lyp
 grid lebedev 99 11
 convergence density 1.e-12
end

tce
 dft
 ccsdt
 thresh 1.e-12
end

task tce energy
================================================================================

 Output coordinates in angstroms (scale by  1.889725989 to convert to a.u.)

  No.       Tag          Charge          X              Y              Z
 ---- ---------------- ---------- -------------- -------------- --------------
    1 O                    8.0000     0.00000000     0.00000000    -0.11730083
    2 H                    1.0000     0.75748061     0.00000000     0.46920332
    3 H                    1.0000    -0.75748061     0.00000000     0.46920332

         Total DFT energy =      -95.217126584667

                       DFT Final Molecular Orbital Analysis
                       ------------------------------------

 Vector    1  Occ=2.000000D+00  E=-2.417314D+01  Symmetry=a1

 Vector    2  Occ=2.000000D+00  E=-4.166598D+00  Symmetry=a1

 Vector    3  Occ=2.000000D+00  E=-4.134507D+00  Symmetry=b1

 Vector    4  Occ=2.000000D+00  E=-3.620363D+00  Symmetry=b2

 Vector    5  Occ=2.000000D+00  E=-3.155646D+00  Symmetry=a1

 Vector    6  Occ=0.000000D+00  E= 5.292375D-01  Symmetry=a1

 Vector    7  Occ=0.000000D+00  E= 2.388074D+00  Symmetry=b1

     Multipole analysis of the density
     ---------------------------------

     L   x y z        total         alpha         beta         nuclear
     -   - - -        -----         -----         ----         -------
     0   0 0 0     -0.000000     -5.000000     -5.000000     10.000000

     1   1 0 0      0.000000      0.000000      0.000000      0.000000
     1   0 1 0     -0.000000     -0.000000     -0.000000      0.000000
     1   0 0 1      1.405024      0.702512      0.702512      0.000000

     2   2 0 0     -1.514029     -2.806009     -2.806009      4.097988
     2   1 1 0     -0.000000     -0.000000     -0.000000      0.000000
     2   1 0 1      0.000000      0.000000      0.000000      0.000000
     2   0 2 0     -4.279924     -2.139962     -2.139962      0.000000
     2   0 1 1      0.000000      0.000000      0.000000      0.000000

 Total times  cpu:       33.9s     wall:       34.2s
