============================== echo of input deck ==============================
echo

start sp-rhf-ccsd_t_

memory 600 mb
geometry
O     0.000000000000    0.000000000000   -0.065638538099
H     0.000000000000   -0.757480611647    0.520865616174
H     0.000000000000    0.757480611647    0.520865616174
end

basis spherical
* library cc-pvdz
end

scf
 rhf
 thresh 1.0e-1
end

tce
 scf
 ccsd(t)
 thresh 1.0e-12
end

task tce energy
================================================================================

 Output coordinates in angstroms (scale by  1.889725989 to convert to a.u.)

  No.       Tag          Charge          X              Y              Z
 ---- ---------------- ---------- -------------- -------------- --------------
    1 O                    8.0000     0.00000000     0.00000000    -0.11730083
    2 H                    1.0000     0.75748061     0.00000000     0.46920332
    3 H                    1.0000    -0.75748061     0.00000000     0.46920332

         Total SCF energy =    -76.026744421192

 Vector    2  Occ=2.000000D+00  E=-1.336305D+00  Symmetry=a1

 Vector    3  Occ=2.000000D+00  E=-6.991614D-01  Symmetry=b1

 Vector    4  Occ=2.000000D+00  E=-5.665780D-01  Symmetry=a1

 Vector    5  Occ=2.000000D+00  E=-4.928505D-01  Symmetry=b2

 Vector    6  Occ=0.000000D+00  E= 1.855842D-01  Symmetry=a1

 Vector    7  Occ=0.000000D+00  E= 2.560270D-01  Symmetry=b1

 Vector    8  Occ=0.000000D+00  E= 7.887855D-01  Symmetry=b1

 Vector    9  Occ=0.000000D+00  E= 8.539289D-01  Symmetry=a1

 Vector   10  Occ=0.000000D+00  E= 1.163557D+00  Symmetry=a1

 Vector   11  Occ=0.000000D+00  E= 1.200546D+00  Symmetry=b2

 Vector   12  Occ=0.000000D+00  E= 1.253100D+00  Symmetry=b1

 Vector   13  Occ=0.000000D+00  E= 1.444572D+00  Symmetry=a1

 Vector   14  Occ=0.000000D+00  E= 1.476290D+00  Symmetry=a2

 Vector   15  Occ=0.000000D+00  E= 1.674576D+00  Symmetry=b2

       Multipole analysis of the density wrt the origin
       ------------------------------------------------

     L   x y z        total         open         nuclear
     -   - - -        -----         ----         -------
     0   0 0 0     -0.000000      0.000000     10.000000

     1   1 0 0     -0.000000      0.000000      0.000000
     1   0 1 0     -0.000000      0.000000      0.000000
     1   0 0 1      0.807644      0.000000      0.000000

     2   2 0 0     -3.056277      0.000000      4.097988
     2   1 1 0      0.000000      0.000000      0.000000
     2   1 0 1     -0.000000      0.000000      0.000000
     2   0 2 0     -5.232880      0.000000      0.000000
     2   0 1 1     -0.000000      0.000000      0.000000

 CCSD total energy / hartree       =       -76.240094837333771
 CCSD(T) total energy / hartree       =       -76.243157564782578
 Total times  cpu:        7.8s     wall:       16.5s
