============================== echo of input deck ==============================
echo

geometry noautosym nocenter units Angstrom
O     0.000000000000    0.000000000000   -0.065638538099
H     0.000000000000   -0.757480611647    0.520865616174
H    -0.000000000000    0.757480611647    0.520865616174
symmetry c1
end

basis
#qcdb basis 6-31g* for element O atom 1
O   S
5484.67170000      0.00183110
 825.23495000      0.01395010
 188.04696000      0.06844510
  52.96450000      0.23271430
  16.89757000      0.47019300
   5.79963530      0.35852090
O   S
  15.53961600     -0.11077750
   3.59993360     -0.14802630
   1.01376180      1.13076700
O   P
  15.53961600      0.07087430
   3.59993360      0.33975280
   1.01376180      0.72715860
O   S
   0.27000580      1.00000000
O   P
   0.27000580      1.00000000
O   D
   0.80000000      1.00000000
#qcdb basis 6-31G* for element H atom 2
H   S
   18.73113700      0.03349460
    2.82539370      0.23472695
    0.64012170      0.81375733
H   S
    0.16127780      1.00000000
#qcdb basis 6-31G* for element H atom 3
H   S
   18.73113700      0.03349460
    2.82539370      0.23472695
    0.64012170      0.81375733
H   S
    0.16127780      1.00000000
end

charge 0
memory 400 mb

task scf energy
================================================================================

 Output coordinates in angstroms (scale by  1.889725989 to convert to a.u.)

  No.       Tag          Charge          X              Y              Z
 ---- ---------------- ---------- -------------- -------------- --------------
    1 O                    8.0000     0.00000000     0.00000000    -0.06563854
    2 H                    1.0000     0.00000000    -0.75748061     0.52086562
    3 H                    1.0000     0.00000000     0.75748061     0.52086562

         Total SCF energy =    -76.010496307006

 Vector    2  Occ=2.000000D+00  E=-1.341405D+00

 Vector    3  Occ=2.000000D+00  E=-7.064718D-01

 Vector    4  Occ=2.000000D+00  E=-5.709038D-01

 Vector    5  Occ=2.000000D+00  E=-4.978584D-01

 Vector    6  Occ=0.000000D+00  E= 2.105785D-01

 Vector    7  Occ=0.000000D+00  E= 3.039534D-01

 Vector    8  Occ=0.000000D+00  E= 1.022228D+00

 Vector    9  Occ=0.000000D+00  E= 1.131541D+00

 Vector   10  Occ=0.000000D+00  E= 1.167786D+00

 Vector   11  Occ=0.000000D+00  E= 1.170958D+00

 Vector   12  Occ=0.000000D+00  E= 1.380585D+00

 Vector   13  Occ=0.000000D+00  E= 1.434056D+00

 Vector   14  Occ=0.000000D+00  E= 2.020281D+00

 Vector   15  Occ=0.000000D+00  E= 2.033978D+00

       Multipole analysis of the density wrt the origin
       ------------------------------------------------

     L   x y z        total         open         nuclear
     -   - - -        -----         ----         -------
     0   0 0 0     -0.000000      0.000000     10.000000

     1   1 0 0      0.000000      0.000000      0.000000
     1   0 1 0      0.000000      0.000000      0.000000
     1   0 0 1      0.875723      0.000000      0.976276

     2   2 0 0     -5.373931      0.000000      0.000000
     2   1 1 0     -0.000000      0.000000      0.000000
     2   1 0 1      0.000000      0.000000      0.000000
     2   0 2 0     -3.070694      0.000000      4.097988
     2   0 1 1      0.000000      0.000000      0.000000

 Total times  cpu:        0.4s     wall:        1.1s
