 Output coordinates in angstroms (scale by  1.889725989 to convert to a.u.)

  No.       Tag          Charge          X              Y              Z
 ---- ---------------- ---------- -------------- -------------- --------------
    1 O                    8.0000     0.00000000     0.00000000    -0.12244346
    2 H                    1.0000     0.79068957     0.00000000     0.48977382
    3 H                    1.0000    -0.79068957     0.00000000     0.48977382

         Total SCF energy =    -74.964662543238

 Vector    2  Occ=2.000000D+00  E=-1.247775D+00  Symmetry=a1

 Vector    3  Occ=2.000000D+00  E=-5.958511D-01  Symmetry=b1

 Vector    4  Occ=2.000000D+00  E=-4.478844D-01  Symmetry=a1

 Vector    5  Occ=2.000000D+00  E=-3.889565D-01  Symmetry=b2

 Vector    6  Occ=0.000000D+00  E= 5.641523D-01  Symmetry=a1

 Vector    7  Occ=0.000000D+00  E= 6.930074D-01  Symmetry=b1

         Total DFT energy =      -75.234018772521

                       DFT Final Molecular Orbital Analysis
                       ------------------------------------

 Vector    1  Occ=2.000000D+00  E=-1.844915D+01  Symmetry=a1

 Vector    2  Occ=2.000000D+00  E=-8.239186D-01  Symmetry=a1

 Vector    3  Occ=2.000000D+00  E=-3.733460D-01  Symmetry=b1

 Vector    4  Occ=2.000000D+00  E=-1.664123D-01  Symmetry=a1

 Vector    5  Occ=2.000000D+00  E=-6.365457D-02  Symmetry=b2

 Vector    6  Occ=0.000000D+00  E= 2.734834D-01  Symmetry=a1

 Vector    7  Occ=0.000000D+00  E= 3.772576D-01  Symmetry=b1

     Multipole analysis of the density
     ---------------------------------

     L   x y z        total         alpha         beta         nuclear
     -   - - -        -----         -----         ----         -------
     0   0 0 0     -0.000000     -5.000000     -5.000000     10.000000

     1   1 0 0     -0.000000     -0.000000     -0.000000      0.000000
     1   0 1 0     -0.000000     -0.000000     -0.000000      0.000000
     1   0 0 1      0.622865      0.311432      0.311432      0.000000

     2   2 0 0     -3.255048     -3.860118     -3.860118      4.465187
     2   1 1 0     -0.000000     -0.000000     -0.000000      0.000000
     2   1 0 1     -0.000000     -0.000000     -0.000000      0.000000
     2   0 2 0     -4.563402     -2.281701     -2.281701      0.000000
     2   0 1 1     -0.000000     -0.000000     -0.000000      0.000000

 Total times  cpu:        1.4s     wall:        3.1s
