============================== echo of input deck ==============================
echo

start opt-rhf-scf

geometry nocenter noautosym
O     0.000000000000    0.000000000000   -0.065638538099
H     0.000000000000   -0.757480611647    0.520865616174
H     0.000000000000    0.757480611647    0.520865616174
symmetry c2v
end

basis
* library 6-31g*
end

scf
 rhf
 thresh 1.0e-8
 direct
end

task scf optimize
================================================================================

         Total SCF energy =    -76.010496307018

 Vector    6  Occ=0.000000D+00  E= 2.105785D-01  Symmetry=a1

 Vector    7  Occ=0.000000D+00  E= 3.039535D-01  Symmetry=b2

 Vector    8  Occ=0.000000D+00  E= 1.022228D+00  Symmetry=b2

 Vector    9  Occ=0.000000D+00  E= 1.131541D+00  Symmetry=a1

 Vector   10  Occ=0.000000D+00  E= 1.167786D+00  Symmetry=b1

 Vector   11  Occ=0.000000D+00  E= 1.170958D+00  Symmetry=a1

 Vector   12  Occ=0.000000D+00  E= 1.380585D+00  Symmetry=b2

 Vector   13  Occ=0.000000D+00  E= 1.434056D+00  Symmetry=a1

 Vector   14  Occ=0.000000D+00  E= 2.020281D+00  Symmetry=a1

 Vector   15  Occ=0.000000D+00  E= 2.033978D+00  Symmetry=a2

@ Step       Energy      Delta E   Gmax     Grms     Xrms     Xmax   Walltime
@ ---- ---------------- -------- -------- -------- -------- -------- --------
@    0     -76.01049631  0.0D+00  0.01130  0.00925  0.00000  0.00000      1.2
         Total SCF energy =    -76.010665962237

 Vector    2  Occ=2.000000D+00  E=-1.349514D+00  Symmetry=a1

 Vector    3  Occ=2.000000D+00  E=-7.170566D-01  Symmetry=b2

 Vector    4  Occ=2.000000D+00  E=-5.724487D-01  Symmetry=a1

 Vector    5  Occ=2.000000D+00  E=-4.987576D-01  Symmetry=b1

 Vector    6  Occ=0.000000D+00  E= 2.142077D-01  Symmetry=a1

 Vector    7  Occ=0.000000D+00  E= 3.083711D-01  Symmetry=b2

 Vector    8  Occ=0.000000D+00  E= 1.033024D+00  Symmetry=b2

 Vector    9  Occ=0.000000D+00  E= 1.134683D+00  Symmetry=a1

 Vector   10  Occ=0.000000D+00  E= 1.167920D+00  Symmetry=b1

 Vector   11  Occ=0.000000D+00  E= 1.186234D+00  Symmetry=a1

 Vector   12  Occ=0.000000D+00  E= 1.387039D+00  Symmetry=b2

 Vector   13  Occ=0.000000D+00  E= 1.432609D+00  Symmetry=a1

 Vector   14  Occ=0.000000D+00  E= 2.018261D+00  Symmetry=a1

 Vector   15  Occ=0.000000D+00  E= 2.029353D+00  Symmetry=a2

         Total SCF energy =    -76.010738270136

 Vector    2  Occ=2.000000D+00  E=-1.346638D+00  Symmetry=a1

 Vector    3  Occ=2.000000D+00  E=-7.133191D-01  Symmetry=b2

 Vector    4  Occ=2.000000D+00  E=-5.719089D-01  Symmetry=a1

 Vector    5  Occ=2.000000D+00  E=-4.984304D-01  Symmetry=b1

 Vector    6  Occ=0.000000D+00  E= 2.129487D-01  Symmetry=a1

 Vector    7  Occ=0.000000D+00  E= 3.068535D-01  Symmetry=b2

 Vector    8  Occ=0.000000D+00  E= 1.029213D+00  Symmetry=b2

 Vector    9  Occ=0.000000D+00  E= 1.133820D+00  Symmetry=a1

 Vector   10  Occ=0.000000D+00  E= 1.167879D+00  Symmetry=b1

 Vector   11  Occ=0.000000D+00  E= 1.180620D+00  Symmetry=a1

 Vector   12  Occ=0.000000D+00  E= 1.384698D+00  Symmetry=b2

 Vector   13  Occ=0.000000D+00  E= 1.433055D+00  Symmetry=a1

 Vector   14  Occ=0.000000D+00  E= 2.018961D+00  Symmetry=a1

 Vector   15  Occ=0.000000D+00  E= 2.030986D+00  Symmetry=a2

@    1     -76.01073827 -2.4D-04  0.00094  0.00061  0.00741  0.01211      1.7
         Total SCF energy =    -76.010746338826

 Vector    2  Occ=2.000000D+00  E=-1.346056D+00  Symmetry=a1

 Vector    3  Occ=2.000000D+00  E=-7.144010D-01  Symmetry=b2

 Vector    4  Occ=2.000000D+00  E=-5.706372D-01  Symmetry=a1

 Vector    5  Occ=2.000000D+00  E=-4.981773D-01  Symmetry=b1

 Vector    6  Occ=0.000000D+00  E= 2.130283D-01  Symmetry=a1

 Vector    7  Occ=0.000000D+00  E= 3.068680D-01  Symmetry=b2

 Vector    8  Occ=0.000000D+00  E= 1.032057D+00  Symmetry=b2

 Vector    9  Occ=0.000000D+00  E= 1.133319D+00  Symmetry=a1

 Vector   10  Occ=0.000000D+00  E= 1.168050D+00  Symmetry=b1

 Vector   11  Occ=0.000000D+00  E= 1.178149D+00  Symmetry=a1

 Vector   12  Occ=0.000000D+00  E= 1.385173D+00  Symmetry=b2

 Vector   13  Occ=0.000000D+00  E= 1.430934D+00  Symmetry=a1

 Vector   14  Occ=0.000000D+00  E= 2.020798D+00  Symmetry=a1

 Vector   15  Occ=0.000000D+00  E= 2.030518D+00  Symmetry=a2

         Total SCF energy =    -76.010746508272

 Vector    2  Occ=2.000000D+00  E=-1.346129D+00  Symmetry=a1

 Vector    3  Occ=2.000000D+00  E=-7.142647D-01  Symmetry=b2

 Vector    4  Occ=2.000000D+00  E=-5.707980D-01  Symmetry=a1

 Vector    5  Occ=2.000000D+00  E=-4.982094D-01  Symmetry=b1

 Vector    6  Occ=0.000000D+00  E= 2.130187D-01  Symmetry=a1

 Vector    7  Occ=0.000000D+00  E= 3.068662D-01  Symmetry=b2

 Vector    8  Occ=0.000000D+00  E= 1.031694D+00  Symmetry=b2

 Vector    9  Occ=0.000000D+00  E= 1.133391D+00  Symmetry=a1

 Vector   10  Occ=0.000000D+00  E= 1.168028D+00  Symmetry=b1

 Vector   11  Occ=0.000000D+00  E= 1.178457D+00  Symmetry=a1

 Vector   12  Occ=0.000000D+00  E= 1.385112D+00  Symmetry=b2

 Vector   13  Occ=0.000000D+00  E= 1.431199D+00  Symmetry=a1

 Vector   14  Occ=0.000000D+00  E= 2.020565D+00  Symmetry=a1

 Vector   15  Occ=0.000000D+00  E= 2.030577D+00  Symmetry=a2

@    2     -76.01074651 -8.2D-06  0.00001  0.00001  0.00298  0.00510      2.1
         Total SCF energy =    -76.010746508391

 Vector    2  Occ=2.000000D+00  E=-1.346132D+00  Symmetry=a1

 Vector    3  Occ=2.000000D+00  E=-7.142697D-01  Symmetry=b2

 Vector    4  Occ=2.000000D+00  E=-5.707974D-01  Symmetry=a1

 Vector    5  Occ=2.000000D+00  E=-4.982096D-01  Symmetry=b1

 Vector    6  Occ=0.000000D+00  E= 2.130201D-01  Symmetry=a1

 Vector    7  Occ=0.000000D+00  E= 3.068678D-01  Symmetry=b2

 Vector    8  Occ=0.000000D+00  E= 1.031700D+00  Symmetry=b2

 Vector    9  Occ=0.000000D+00  E= 1.133391D+00  Symmetry=a1

 Vector   10  Occ=0.000000D+00  E= 1.168028D+00  Symmetry=b1

 Vector   11  Occ=0.000000D+00  E= 1.178460D+00  Symmetry=a1

 Vector   12  Occ=0.000000D+00  E= 1.385115D+00  Symmetry=b2

 Vector   13  Occ=0.000000D+00  E= 1.431197D+00  Symmetry=a1

 Vector   14  Occ=0.000000D+00  E= 2.020566D+00  Symmetry=a1

 Vector   15  Occ=0.000000D+00  E= 2.030575D+00  Symmetry=a2

       Multipole analysis of the density wrt the origin
       ------------------------------------------------

     L   x y z        total         open         nuclear
     -   - - -        -----         ----         -------
     0   0 0 0     -0.000000      0.000000     10.000000

     1   1 0 0     -0.000000      0.000000      0.000000
     1   0 1 0     -0.000000      0.000000      0.000000
     1   0 0 1      0.865110      0.000000      1.091766

     2   2 0 0     -5.357258      0.000000      0.000000
     2   1 1 0     -0.000000      0.000000      0.000000
     2   1 0 1      0.000000      0.000000      0.000000
     2   0 2 0     -3.052349      0.000000      4.061129
     2   0 1 1      0.000000      0.000000      0.000000

         Total SCF energy =    -76.010746508391
@    3     -76.01074651 -1.2D-10  0.00000  0.00000  0.00000  0.00001      2.3
@    3     -76.01074651 -1.2D-10  0.00000  0.00000  0.00000  0.00001      2.3

 Output coordinates in angstroms (scale by  1.889725989 to convert to a.u.)

  No.       Tag          Charge          X              Y              Z
 ---- ---------------- ---------- -------------- -------------- --------------
    1 O                    8.0000     0.00000000     0.00000000    -0.05690782
    2 H                    1.0000     0.00000000    -0.75406630     0.51650026
    3 H                    1.0000     0.00000000     0.75406630     0.51650026

 Total times  cpu:        0.4s     wall:        2.3s
