============================== echo of input deck ==============================
start h2o

memory  1500 mb

echo

geometry units bohr
O      0.000000000000     0.000000000000    -0.123909374404
H      0.000000000000     1.429936611037     0.983265845431
H      0.000000000000    -1.429936611037     0.983265845431
symmetry c1
end

basis
H library sto-3g
O library sto-3g
end

scf
thresh 1.0e-10
tol2e 1.0e-10
singlet
rhf
end

tce
mp2
end

task tce energy
================================================================================

 Output coordinates in a.u. (scale by  1.000000000 to convert to a.u.)

  No.       Tag          Charge          X              Y              Z
 ---- ---------------- ---------- -------------- -------------- --------------
    1 O                    8.0000     0.00000000     0.00000000    -0.22143504
    2 H                    1.0000     0.00000000     1.42993661     0.88574018
    3 H                    1.0000     0.00000000    -1.42993661     0.88574018

         Total SCF energy =    -74.962905406171

 Vector    2  Occ=2.000000D+00  E=-1.268536D+00

 Vector    3  Occ=2.000000D+00  E=-6.180077D-01

 Vector    4  Occ=2.000000D+00  E=-4.530671D-01

 Vector    5  Occ=2.000000D+00  E=-3.912735D-01

 Vector    6  Occ=0.000000D+00  E= 6.059099D-01

 Vector    7  Occ=0.000000D+00  E= 7.425787D-01

       Multipole analysis of the density wrt the origin
       ------------------------------------------------

     L   x y z        total         open         nuclear
     -   - - -        -----         ----         -------
     0   0 0 0     -0.000000      0.000000     10.000000

     1   1 0 0      0.000000      0.000000      0.000000
     1   0 1 0      0.000000      0.000000      0.000000
     1   0 0 1      0.679135      0.000000      0.000000

     2   2 0 0     -4.530864      0.000000      0.000000
     2   1 1 0     -0.000000      0.000000      0.000000
     2   1 0 1      0.000000      0.000000      0.000000
     2   0 2 0     -3.240264      0.000000      4.089437
     2   0 1 1      0.000000      0.000000      0.000000

 Total times  cpu:        0.1s     wall:        0.2s
